LAMMPS data file generated by OpenBabel
64 atoms
32 bonds
0 angles
0 dihedrals
0 impropers
1 atom types
1 bond types
0 angle types
0 dihedral types
0 improper types
   0.00000    10.00000 xlo xhi
   0.00000    10.00000 ylo yhi
   0.00000    10.00000 zlo zhi



Masses

1 15.9994 # O


Atoms

1       1    1   -0.82000    6.90450    5.23720    6.49140 #   O
2       1    1   -0.82000    7.10250    4.64310    5.52860 #   O
3       2    1   -0.82000    2.38430    4.54550    1.62670 #   O
4       2    1   -0.82000    1.46290    4.81410    0.99570 #   O
5       3    1   -0.82000    8.47940    2.49120    2.42370 #   O
6       3    1   -0.82000    8.30130    3.58670    2.71930 #   O
7       4    1   -0.82000    2.11440    3.59610    7.71730 #   O
8       4    1   -0.82000    1.01320    3.73940    7.42370 #   O
9       5    1   -0.82000    2.85860    7.35000    5.82650 #   O
10      5    1   -0.82000    2.55520    8.37580    6.24470 #   O
11      6    1   -0.82000    4.01490    7.19160    9.32840 #   O
12      6    1   -0.82000    4.16630    6.20020    8.76870 #   O
13      7    1   -0.82000    1.54920    2.19380    6.35620 #   O
14      7    1   -0.82000    2.27360    1.54400    6.96630 #   O
15      8    1   -0.82000    3.19730    3.44040    5.82690 #   O
16      8    1   -0.82000    2.38670    2.82430    6.35850 #   O
17      9    1   -0.82000    2.96030    2.58010    6.05130 #   O
18      9    1   -0.82000    2.79710    2.33920    4.94020 #   O
19     10    1   -0.82000    9.71520    1.94650    0.99180 #   O
20     10    1   -0.82000    9.44010    0.85010    1.19550 #   O
21     11    1   -0.82000    3.06770    3.30350    8.54490 #   O
22     11    1   -0.82000    2.73920    3.34820    9.64450 #   O
23     12    1   -0.82000    6.48700    0.36360    7.19200 #   O
24     12    1   -0.82000    5.87300    1.32990    7.28380 #   O
25     13    1   -0.82000    8.88380    4.01260    4.02690 #   O
26     13    1   -0.82000    8.53170    3.17830    3.32050 #   O
27     14    1   -0.82000    1.36480    3.67210    8.92880 #   O
28     14    1   -0.82000    1.73620    3.69300    7.84220 #   O
29     15    1   -0.82000    0.78520    6.41470    3.69760 #   O
30     15    1   -0.82000    0.31480    7.45150    3.84910 #   O
31     16    1   -0.82000    0.57190    0.57620    8.20900 #   O
32     16    1   -0.82000    1.14700    0.55780    9.20300 #   O
33     17    1   -0.82000    8.36540    8.86050    5.54070 #   O
34     17    1   -0.82000    8.77890    9.65910    4.82620 #   O
35     18    1   -0.82000    5.10150    6.62530    2.94410 #   O
36     18    1   -0.82000    5.98610    6.78410    3.65920 #   O
37     19    1   -0.82000    4.75900    7.12220    4.34040 #   O
38     19    1   -0.82000    4.46750    8.22350    4.19460 #   O
39     20    1   -0.82000    7.34780    7.99790    4.84200 #   O
40     20    1   -0.82000    7.24200    6.96390    4.35330 #   O
41     21    1   -0.82000    3.25490    4.39510    5.21520 #   O
42     21    1   -0.82000    2.33090    4.99370    5.54240 #   O
43     22    1   -0.82000    7.92470    8.01840    0.80820 #   O
44     22    1   -0.82000    7.93400    6.87390    0.71290 #   O
45     23    1   -0.82000    6.22460    8.87810    6.48960 #   O
46     23    1   -0.82000    6.50240    8.53260    5.43010 #   O
47     24    1   -0.82000    4.02890    4.43300    7.49050 #   O
48     24    1   -0.82000    2.92010    4.72160    7.41080 #   O
49     25    1   -0.82000    6.66310    6.67840    7.61370 #   O
50     25    1   -0.82000    5.91920    5.86720    7.94200 #   O
51     26    1   -0.82000    9.51210    8.45910    7.02870 #   O
52     26    1   -0.82000    8.92810    9.41000    6.75680 #   O
53     27    1   -0.82000    9.15020    2.21150    5.52630 #   O
54     27    1   -0.82000    9.07360    1.10950    5.84100 #   O
55     28    1   -0.82000    9.40050    9.44570    1.91290 #   O
56     28    1   -0.82000    9.26640    9.05630    0.84070 #   O
57     29    1   -0.82000    8.30820    1.24210    6.11150 #   O
58     29    1   -0.82000    8.25310    1.66800    7.17680 #   O
59     30    1   -0.82000    5.85860    9.61010    1.51910 #   O
60     30    1   -0.82000    6.85080    9.21020    1.93750 #   O
61     31    1   -0.82000    9.51230    4.02790    0.12790 #   O
62     31    1   -0.82000    8.80700    3.36600    0.74730 #   O
63     32    1   -0.82000    6.64700    1.76700    5.62250 #   O
64     32    1   -0.82000    6.26970    0.70250    5.41330 #   O


Bonds

1       1    1    2 #  O: O
2       1    3    4 #  O: O
3       1    5    6 #  O: O
4       1    7    8 #  O: O
5       1    9   10 #  O: O
6       1   11   12 #  O: O
7       1   13   14 #  O: O
8       1   15   16 #  O: O
9       1   17   18 #  O: O
10      1   19   20 #  O: O
11      1   21   22 #  O: O
12      1   23   24 #  O: O
13      1   25   26 #  O: O
14      1   27   28 #  O: O
15      1   29   30 #  O: O
16      1   31   32 #  O: O
17      1   33   34 #  O: O
18      1   35   36 #  O: O
19      1   37   38 #  O: O
20      1   39   40 #  O: O
21      1   41   42 #  O: O
22      1   43   44 #  O: O
23      1   45   46 #  O: O
24      1   47   48 #  O: O
25      1   49   50 #  O: O
26      1   51   52 #  O: O
27      1   53   54 #  O: O
28      1   55   56 #  O: O
29      1   57   58 #  O: O
30      1   59   60 #  O: O
31      1   61   62 #  O: O
32      1   63   64 #  O: O


Angles
