LAMMPS data file generated by OpenBabel
64 atoms
32 bonds
0 angles
0 dihedrals
0 impropers
1 atom types
1 bond types
0 angle types
0 dihedral types
0 improper types
   0.00000    10.00000 xlo xhi
   0.00000    10.00000 ylo yhi
   0.00000    10.00000 zlo zhi



Masses

1 15.9994 # O


Atoms

1       1    1   -0.82000    1.51000    5.87950    0.49750 #   O
2       1    1   -0.82000    0.69680    5.17790    0.09060 #   O
3       2    1   -0.82000    4.20060    3.43600    5.64340 #   O
4       2    1   -0.82000    3.38740    2.73440    5.23650 #   O
5       3    1   -0.82000    6.92550    2.54890    7.92870 #   O
6       3    1   -0.82000    6.11230    1.84730    7.52180 #   O
7       4    1   -0.82000    1.04960    2.04430    9.01030 #   O
8       4    1   -0.82000    0.23630    1.34270    8.60340 #   O
9       5    1   -0.82000    9.82850    6.71930    5.19770 #   O
10      5    1   -0.82000    9.01520    6.01770    4.79080 #   O
11      6    1   -0.82000    4.89740    9.03610    9.23920 #   O
12      6    1   -0.82000    4.08410    8.33460    8.83230 #   O
13      7    1   -0.82000    5.28020    1.04250    1.29220 #   O
14      7    1   -0.82000    4.46700    0.34100    0.88530 #   O
15      8    1   -0.82000    8.04630    1.41080    6.04210 #   O
16      8    1   -0.82000    7.23300    0.70930    5.63520 #   O
17      9    1   -0.82000    5.51180    2.00770    8.04880 #   O
18      9    1   -0.82000    4.69850    1.30610    7.64190 #   O
19     10    1   -0.82000    5.38230    7.34780    8.09130 #   O
20     10    1   -0.82000    4.56900    6.64630    7.68440 #   O
21     11    1   -0.82000    5.89290    5.20160    1.83530 #   O
22     11    1   -0.82000    5.07960    4.50000    1.42840 #   O
23     12    1   -0.82000    9.83060    9.62740    3.23710 #   O
24     12    1   -0.82000    9.01730    8.92580    2.83020 #   O
25     13    1   -0.82000    5.29960    4.79080    8.92640 #   O
26     13    1   -0.82000    4.48630    4.08920    8.51950 #   O
27     14    1   -0.82000    2.50350    3.92090    8.77710 #   O
28     14    1   -0.82000    1.69030    3.21940    8.37020 #   O
29     15    1   -0.82000    7.28740    7.11910    1.97060 #   O
30     15    1   -0.82000    6.47410    6.41760    1.56370 #   O
31     16    1   -0.82000    1.65600    2.75270    0.93320 #   O
32     16    1   -0.82000    0.84280    2.05110    0.52630 #   O
33     17    1   -0.82000    8.21960    8.82360    2.02200 #   O
34     17    1   -0.82000    7.40640    8.12200    1.61500 #   O
35     18    1   -0.82000    9.95430    8.25970    7.03280 #   O
36     18    1   -0.82000    9.14100    7.55810    6.62590 #   O
37     19    1   -0.82000    7.72650    0.91710    8.71080 #   O
38     19    1   -0.82000    6.91320    0.21550    8.30390 #   O
39     20    1   -0.82000    7.42150    8.85070    6.34540 #   O
40     20    1   -0.82000    6.60820    8.14910    5.93850 #   O
41     21    1   -0.82000    5.06700    9.05260    9.11020 #   O
42     21    1   -0.82000    4.25370    8.35100    8.70330 #   O
43     22    1   -0.82000    1.91460    3.79480    2.25130 #   O
44     22    1   -0.82000    1.10130    3.09330    1.84440 #   O
45     23    1   -0.82000    8.16410    4.65750    2.33390 #   O
46     23    1   -0.82000    7.35080    3.95600    1.92700 #   O
47     24    1   -0.82000    4.00130    1.07330    1.79300 #   O
48     24    1   -0.82000    3.18810    0.37170    1.38610 #   O
49     25    1   -0.82000    6.39820    1.85540    5.68050 #   O
50     25    1   -0.82000    5.58500    1.15380    5.27360 #   O
51     26    1   -0.82000    7.76260    5.98560    9.63870 #   O
52     26    1   -0.82000    6.94940    5.28400    9.23180 #   O
53     27    1   -0.82000    6.21240    2.10670    0.49840 #   O
54     27    1   -0.82000    5.39910    1.40520    0.09150 #   O
55     28    1   -0.82000    3.63120    0.80060    9.20380 #   O
56     28    1   -0.82000    2.81790    0.09900    8.79680 #   O
57     29    1   -0.82000    4.87080    9.67330    1.89420 #   O
58     29    1   -0.82000    4.05750    8.97170    1.48730 #   O
59     30    1   -0.82000    1.81820    0.85510    6.82080 #   O
60     30    1   -0.82000    1.00500    0.15350    6.41390 #   O
61     31    1   -0.82000    4.86710    6.83020    6.40010 #   O
62     31    1   -0.82000    4.05390    6.12860    5.99320 #   O
63     32    1   -0.82000    4.71830    4.93120    9.63850 #   O
64     32    1   -0.82000    3.90500    4.22960    9.23160 #   O


Bonds

1       1    1    2 #  O: O
2       1    3    4 #  O: O
3       1    5    6 #  O: O
4       1    7    8 #  O: O
5       1    9   10 #  O: O
6       1   11   12 #  O: O
7       1   13   14 #  O: O
8       1   15   16 #  O: O
9       1   17   18 #  O: O
10      1   19   20 #  O: O
11      1   21   22 #  O: O
12      1   23   24 #  O: O
13      1   25   26 #  O: O
14      1   27   28 #  O: O
15      1   29   30 #  O: O
16      1   31   32 #  O: O
17      1   33   34 #  O: O
18      1   35   36 #  O: O
19      1   37   38 #  O: O
20      1   39   40 #  O: O
21      1   41   42 #  O: O
22      1   43   44 #  O: O
23      1   45   46 #  O: O
24      1   47   48 #  O: O
25      1   49   50 #  O: O
26      1   51   52 #  O: O
27      1   53   54 #  O: O
28      1   55   56 #  O: O
29      1   57   58 #  O: O
30      1   59   60 #  O: O
31      1   61   62 #  O: O
32      1   63   64 #  O: O


Angles


