LAMMPS data file generated by OpenBabel
16 atoms
8 bonds
0 angles
0 dihedrals
0 impropers
1 atom types
1 bond types
0 angle types
0 dihedral types
0 improper types
   0.00000    10.00000 xlo xhi
   0.00000    10.00000 ylo yhi
   0.00000    10.00000 zlo zhi



Masses

1 15.9994 # O


Atoms

1       1    1   -0.82000    3.04790    5.53610    0.71000 #   O
2       1    1   -0.82000    2.14000    5.73890    0.03630 #   O
3       2    1   -0.82000    2.10050    6.36320    8.52250 #   O
4       2    1   -0.82000    2.10820    5.83190    9.54070 #   O
5       3    1   -0.82000    8.42040    2.22030    6.26960 #   O
6       3    1   -0.82000    8.66790    3.15150    5.64440 #   O
7       4    1   -0.82000    8.22650    6.89940    7.71260 #   O
8       4    1   -0.82000    9.19870    7.46980    7.49220 #   O
9       5    1   -0.82000    3.37570    0.09190    2.45610 #   O
10      5    1   -0.82000    4.08420    0.82470    1.92680 #   O
11      6    1   -0.82000    7.50930    9.85370    0.45760 #   O
12      6    1   -0.82000    7.40900    9.78110    1.59950 #   O
13      7    1   -0.82000    9.31140    2.93000    4.46270 #   O
14      7    1   -0.82000    8.69150    3.63750    5.12180 #   O
15      8    1   -0.82000    9.99520    8.43210    0.05480 #   O
16      8    1   -0.82000    8.88860    8.43980    0.36240 #   O


Bonds

1       1    1    2 #  O: O
2       1    3    4 #  O: O
3       1    5    6 #  O: O
4       1    7    8 #  O: O
5       1    9   10 #  O: O
6       1   11   12 #  O: O
7       1   13   14 #  O: O
8       1   15   16 #  O: O


Angles
